243
Properties=species:S:1:pos:R:3:momenta:R:3:masses:R:1 C60-Ih=T time_fs=500.0 step=500 energy=-2130.174069992308 free_energy=-2130.174069992308 stress="0.0 0.0 0.0 0.0 0.0 0.0 0.0 0.0 0.0" pbc="F F F"
C        2.31564283       0.81768464       2.43366412      -1.05509623       0.45391144      -1.18809466      12.01100000
C        3.11338175       0.43601363       1.34041875      -1.37786500      -0.07420506      -0.56896555      12.01100000
C        1.58114836      -0.10306039       3.11531633      -0.66081247       0.20916989      -0.66452044      12.01100000
C        3.16243023      -0.87382705       0.92162607      -1.39779930       0.09410907      -0.51020691      12.01100000
C        3.21497374      -1.18987933      -0.42971920      -0.60624438      -0.00041536      -0.56381155      12.01100000
C        3.08784511       1.40841322       0.36604204      -1.22709470      -0.55811737      -0.54330433      12.01100000
C        3.11725012       1.08126440      -0.96634338      -2.08896150      -0.43658435       0.35006000      12.01100000
C        3.18525575      -0.21989307      -1.37298620      -1.20642547       0.00169040      -0.28853519      12.01100000
C       -0.32676957       1.38372767       3.17761370       0.00329628      -0.67122660      -0.15260799      12.01100000
C        0.45911615       2.31935324       2.46311804       0.23744511      -0.08828987      -0.10339479      12.01100000
C        0.23982148       0.17561090       3.48182667       0.48633930       0.12197894      -0.75329000      12.01100000
C        1.74581089       2.04144724       2.12426357      -1.08877654      -0.17360286      -0.53582878      12.01100000
C        2.24936086       2.43805443       0.85572104      -1.24013957      -0.58471887      -0.41400950      12.01100000
C       -0.36027787       2.98526768       1.55441072       0.01503313      -0.02503080      -0.69983615      12.01100000
C        0.13768152       3.37719280       0.35503490      -0.73156323      -0.23373845       0.18843601      12.01100000
C        1.47147635       3.11511381      -0.01035003      -1.50347672      -0.81559332      -0.26422005      12.01100000
C       -1.81357636      -0.94850039       2.85888478       0.13844114       0.27705419       0.02515272      12.01100000
C       -2.36499022       0.31447806       2.51143288       1.06871489       0.14056764      -0.12202971      12.01100000
C       -0.50710327      -0.99613927       3.27839288       0.68437930       0.58107736       0.02275465      12.01100000
C       -1.65444336       1.47182936       2.69085011      -0.34126013      -0.22828400      -0.37064800      12.01100000
C       -1.65836036       2.46762002       1.68687014      -0.14700184       0.02365240      -0.14362939      12.01100000
C       -3.12188996       0.14269358       1.35879022       1.12566873       0.27941557       0.48177575      12.01100000
C       -3.14310070       1.11740372       0.41104635       0.77986330      -0.24393463       0.20780412      12.01100000
C       -2.38669679       2.29245123       0.55880140       0.50599578       0.03695112       0.25864433      12.01100000
C       -0.11808027      -2.82150167       1.75387764       0.30167348       1.15527810      -0.43197496      12.01100000
C       -1.38744683      -2.79300076       1.30318768       0.64338778       1.03369896      -0.37039802      12.01100000
C        0.34336455      -1.93764405       2.71295365      -0.07477102       0.54957515      -0.59385280      12.01100000
C       -2.25276290      -1.86425193       1.82903539       1.06876212       0.37635285      -0.28099022      12.01100000
C       -3.04645465      -1.16930223       0.92294639       1.45745707       0.23633059      -0.60793821      12.01100000
C       -1.41378541      -3.19837475      -0.01770925       1.23063726      -0.19740667      -0.01093865      12.01100000
C       -2.22079937      -2.53934078      -0.89765572       0.67215238       0.24373089       0.22015738      12.01100000
C       -3.05435341      -1.51084185      -0.41211758       1.13401468      -0.02261834       0.09958778      12.01100000
C        2.39597223      -1.80845195       1.57745092      -1.11451023       0.87645240      -0.80594975      12.01100000
C        1.96361828      -2.73648851       0.64382653       0.16154807       0.52739022      -0.51735461      12.01100000
C        1.61235278      -1.44406975       2.63097153      -0.42419403       0.65293270      -0.82451276      12.01100000
C        0.69326979      -3.24007452       0.74778515      -0.15414691       0.97415980      -0.30157043      12.01100000
C       -0.09921745      -3.47525098      -0.37676104       0.83441928       0.33995564      -0.47941473      12.01100000
C        2.43202692      -2.35712834      -0.58525555      -0.65795925       0.42335045      -0.82055916      12.01100000
C        1.68927693      -2.54332444      -1.70162665      -0.35526875       0.08494400      -0.08341717      12.01100000
C        0.40699116      -3.05477192      -1.57592165       0.08672754      -0.15081648       0.18449605      12.01100000
C       -2.30863475      -0.91305255      -2.48014403       1.10483079      -0.60055496       0.93135996      12.01100000
C       -1.73950175      -2.14480447      -2.17897325       0.90637837      -0.07124151       0.62350018      12.01100000
C       -0.42363404      -2.38692283      -2.46631525       0.19678651      -0.01714210      -0.28416327      12.01100000
C       -1.58033847       0.02833099      -3.13376434       0.40099512      -0.51099985       1.08451861      12.01100000
C       -2.36743331       1.77159108      -1.63530849       1.05608904      -0.69462588       0.08537441      12.01100000
C       -3.13546133       0.79918706      -0.96971962       1.40327731      -0.22006242       0.57596224      12.01100000
C       -3.09667197      -0.52287217      -1.38790098       1.57497427       0.15503007       0.51666323      12.01100000
C       -1.61795873       1.39154315      -2.72893136       0.39497964      -0.56430854       0.99494717      12.01100000
C        0.13697170       2.81091597      -1.86249599      -0.55526183      -0.63366547       0.26478578      12.01100000
C       -0.70721549       3.28664243      -0.80070622      -0.39336112      -0.48023760       0.32040279      12.01100000
C       -1.96366521       2.74836224      -0.70259593       0.19323643      -0.40051613       0.74332780      12.01100000
C       -0.30724154       1.91218471      -2.78630450      -0.17122305      -0.44697409       1.38811250      12.01100000
C        1.81227484       0.84260119      -2.84091607      -0.45196586      -0.35378877      -0.39634491      12.01100000
C        2.26386863       1.77468098      -1.86347865      -0.82832060      -0.60411660       0.40106152      12.01100000
C        1.44384290       2.71515788      -1.36846517      -0.55287261      -0.64787369       0.08245867      12.01100000
C        0.50874564       0.95367818      -3.31013206      -0.20099313      -0.41006373       0.10335205      12.01100000
C        0.35177544      -1.44716627      -3.10634175       0.15351901      -0.02113685      -0.37439102      12.01100000
C        1.65235313      -1.54150328      -2.64929671       0.33937454       0.08260046       0.00028628      12.01100000
C        2.37871478      -0.39047323      -2.50848112      -0.90542107      -0.33222975       0.02734606      12.01100000
C       -0.22474441      -0.24955062      -3.49058367       0.19829163      -0.69985941       0.69857879      12.01100000
C        6.33611692       0.54432269      -0.29549710      -0.26792489      -0.05645375       0.12461702      12.01100000
C        6.34835338      -0.89509270      -0.00796580      -0.05184256       0.08059106       0.18929883      12.01100000
C        6.09210499      -1.58066454      -1.27015280      -0.22626370       0.34768658       0.33533276      12.01100000
C        5.88979517      -0.57187016      -2.31640022       0.31940560       0.09799553       0.06351077      12.01100000
C        6.04854124       0.73575755      -1.71489827       0.44458227      -0.02176984       0.21815329      12.01100000
C        3.11168030       5.48810114       1.42053027      -0.07606956      -0.23321860      -0.61014892      12.01100000
C        4.19063920       4.84748858       0.69358846      -0.18020178      -0.41160952      -0.08972221      12.01100000
C        3.90489043       5.01517025      -0.72712201       0.02375502       0.22629837       0.17555002      12.01100000
C        2.67597072       5.79441157      -0.87382487       0.84652644       1.04097610       0.12820837      12.01100000
C        2.16323524       6.07566063       0.46310300       0.54874437       0.66985450       0.07564584      12.01100000
C        3.45918007      -0.27463866       5.37722003      -0.24211063      -0.01502517      -0.42062025      12.01100000
C        4.51150038       0.00544687       4.41949567       0.07489399       0.32710886      -0.03305737      12.01100000
C        4.59469885       1.43884191       4.18395257       0.92404185      -0.06942942       0.46180166      12.01100000
C        3.50849733       2.05785214       4.92944339       0.55080742      -0.12294347       0.21427239      12.01100000
C        2.83889843       0.99572749       5.70226102      -0.11061274      -0.23578318      -0.43505830      12.01100000
C        2.39374900      -5.78944196       1.30601220      -0.15967763       0.58837051       0.48174140      12.01100000
C        3.66502013      -5.05987852       1.16221111       0.16430174      -0.50837853       0.41055006      12.01100000
C        3.92049663      -4.39218298       2.40894670       0.14003134      -0.59111769       0.10059358      12.01100000
C        2.82197592      -4.67382893       3.32695107      -0.32925537       0.10293677      -0.19955050      12.01100000
C        1.86384188      -5.54679944       2.64135009      -0.01507842       0.10575637      -0.04690666      12.01100000
C        1.38628078      -3.45527676      -5.12833514       0.66769318      -1.08404209      -0.53041239      12.01100000
C        2.76124993      -3.44109993      -4.65685345       0.09620652      -0.34880508      -0.05408066      12.01100000
C        2.87709729      -4.44206860      -3.62284011      -0.18751915      -0.24037349      -0.23278671      12.01100000
C        1.60303007      -5.09393161      -3.47341447       0.19006305       0.01495536      -0.66841020      12.01100000
C        0.68293724      -4.49501358      -4.41713859       0.59052518      -0.69662856      -0.92817960      12.01100000
C        1.77643142       3.38981653      -5.07701974      -0.07714721      -0.24473503       0.08524537      12.01100000
C        3.05647218       2.70342972      -5.00585475       0.05103499      -0.11382599       0.22165906      12.01100000
C        2.87613952       1.41423084      -5.64062074       0.16774178       0.12860348       0.35512123      12.01100000
C        1.47225282       1.30078257      -6.07676236       0.17437786       0.27756096       0.06842372      12.01100000
C        0.80610568       2.55963528      -5.77729760      -0.02364766       0.15140342      -0.40447314      12.01100000
C       -6.35087999      -0.52331068       0.29823226       0.44073299       0.21147708       0.16899253      12.01100000
C       -6.02851012      -0.71418100       1.70485213      -0.33022081       0.00619660      -0.08156746      12.01100000
C       -5.84908425       0.58109590       2.31398142      -0.10695965      -0.04653039      -0.11242866      12.01100000
C       -6.08375658       1.59895286       1.27395517       0.01170629      -0.19512869      -0.36872146      12.01100000
C       -6.38507594       0.91331907       0.00679150      -0.23913954      -0.06060648      -0.06746588      12.01100000
C       -2.17423349      -6.00238672      -0.44814978      -0.46211467      -0.35665566       0.22118386      12.01100000
C       -2.69447635      -5.76070688       0.88477990      -0.81321471      -0.93841667      -0.08867086      12.01100000
C       -3.93264476      -5.01158118       0.73868564       0.29944084       0.02236171       0.17015692      12.01100000
C       -4.20859890      -4.82048541      -0.67772768       0.23611077       0.35405432      -0.05256513      12.01100000
C       -3.11463742      -5.42458231      -1.39848132      -0.18191655       0.40848231       0.61144096      12.01100000
C       -0.82031976      -2.54505725       5.77929941       0.05935224      -0.30528663       0.35404686      12.01100000
C       -1.47491411      -1.27849330       6.02878246      -0.08026004      -0.41630247      -0.05031650      12.01100000
C       -2.87564071      -1.37759313       5.59719963       0.08735563      -0.07934252      -0.43788825      12.01100000
C       -3.07479887      -2.69012463       4.99940525      -0.05932053      -0.05984338      -0.17510409      12.01100000
C       -1.79363125      -3.39376924       5.09816279      -0.06273285       0.48758397      -0.41140370      12.01100000
C       -0.69662185       4.55169885       4.44886215      -0.55816020       0.50907429       0.97236615      12.01100000
C       -1.62079605       5.16763563       3.50364216      -0.20130266      -0.08285578       0.55995808      12.01100000
C       -2.89323810       4.49418836       3.64503019       0.30256506       0.04710423       0.11250441      12.01100000
C       -2.77126843       3.47911859       4.66762865       0.08279730       0.52340594       0.35120178      12.01100000
C       -1.41078623       3.51493441       5.17267700      -0.43360739       0.75844941       0.50448768      12.01100000
C       -1.89855959       5.58082706      -2.64575374      -0.04302369      -0.04662657      -0.07463530      12.01100000
C       -2.84322333       4.69797944      -3.32601902      -0.04534271      -0.07185975       0.36833403      12.01100000
C       -3.92818750       4.40331503      -2.39958845      -0.19390526       0.56053162      -0.39887788      12.01100000
C       -3.67600643       5.08133260      -1.15537429      -0.41494708       0.35628549      -0.33603773      12.01100000
C       -2.43484899       5.83938905      -1.30991847      -0.07769764      -0.61908408      -0.27506395      12.01100000
C       -2.86681527      -0.98381327      -5.73237908       0.02039977       0.14096073       0.35025483      12.01100000
C       -3.52665188      -2.02313888      -4.92031383      -0.71609466       0.06939254      -0.17907508      12.01100000
C       -4.62555770      -1.42768787      -4.18679886      -0.96179364      -0.19837589      -0.56532254      12.01100000
C       -4.54020017       0.00843685      -4.42765774      -0.16321161      -0.26186935       0.13870811      12.01100000
C       -3.48111401       0.29294558      -5.39898943       0.21107443      -0.18629991       0.26226936      12.01100000
C        5.45405555       0.95328345       1.93243293       1.48215468       0.54528169       0.56286846      12.01100000
C        4.33666808       3.09871851       2.41217209       1.95469141       0.73415108       0.84724602      12.01100000
C        5.23609231       2.69493487       0.18545441       0.91591395       0.53442611       0.53607504      12.01100000
C        4.94672124       1.88720945       2.88024351       1.86146285       0.51051405       0.61573424      12.01100000
C        5.78119763       1.45466137       0.63297117       0.31555209      -0.05210181       0.71041394      12.01100000
C        4.71712320       3.61657836       1.12220620       0.60556126       0.15624792       0.63002817      12.01100000
C        5.50515042      -0.43033260       2.21908748       1.10381918      -0.15872813       0.28355104      12.01100000
C        4.16456327      -2.17362260       3.38339716       0.26424969      -0.20855234      -0.11344214      12.01100000
C        5.04596055      -2.61186623       1.15792986       1.23624278      -0.29907734       0.72505710      12.01100000
C        4.79084498      -0.90512754       3.36910685       0.21781787      -0.13379717      -0.32112256      12.01100000
C        5.78937108      -1.37507900       1.18640512       0.64515857      -0.30166283       0.60940403      12.01100000
C        4.49501295      -3.10189755       2.37107723       0.75618676      -0.43691213       0.36826452      12.01100000
C        4.83641575      -3.29206732      -0.03505498       1.91283277      -1.10901891       0.23968336      12.01100000
C        3.24568984      -4.71615748      -1.22599591       0.69707217      -0.32692828      -0.15251106      12.01100000
C        4.35879686      -2.92936767      -2.38393884       0.47506184      -0.57146104       0.05355147      12.01100000
C        4.02277495      -4.45162597      -0.05757589       0.92789435      -0.65723374      -0.46650526      12.01100000
C        5.23653407      -2.71214005      -1.29043382       0.52803916      -0.67397043      -0.03210809      12.01100000
C        3.62164718      -4.13685623      -2.45925491       0.02400521      -0.25499237       0.26474059      12.01100000
C        4.26838676      -1.96948189      -3.42664968       0.37253098      -0.09292544      -0.40019163      12.01100000
C        2.73881788      -0.99388408      -5.00985775       0.86908484      -0.20196006      -0.45398342      12.01100000
C        4.33194533       0.42484421      -3.93790658       1.58933336       0.55269040      -1.44978962      12.01100000
C        3.36540730      -2.17009305      -4.48574313       0.41653976       0.12216632       0.12132484      12.01100000
C        4.91552857      -0.71769862      -3.32931150       0.41197495      -0.27594398      -0.94696402      12.01100000
C        3.43181920       0.26257071      -5.02867023       0.83651405      -0.38698226      -0.40641320      12.01100000
C        4.92166542       2.84418518      -1.18535828       0.35444884       0.08384455      -0.14413866      12.01100000
C        3.45309007       3.84059378      -2.88203283       0.96299348       0.28444798      -0.44404180      12.01100000
C        4.45552405       1.66505740      -3.30230358       1.16375784       0.85447406      -0.41907199      12.01100000
C        4.13715799       3.93758438      -1.61801223       0.19090145      -0.09998229      -0.35374867      12.01100000
C        5.20596606       1.79054179      -2.10268679       1.00645335       0.73713937      -0.71948664      12.01100000
C        3.80606854       2.82368254      -3.81983499       0.95847242       0.53246188      -0.44691825      12.01100000
C        3.28848758       3.69704751       3.11572910       1.17827495       0.65762607       0.45710809      12.01100000
C        1.39238919       3.24342202       4.66261291      -0.02832397       0.84761728       0.63215235      12.01100000
C        1.16700553       4.88825331       2.82602241       0.51875675       0.48344955       0.67339171      12.01100000
C        2.77719292       3.12414705       4.33983367       0.43958035       0.39706257       0.34609835      12.01100000
C        2.56603736       4.80353716       2.53450150       0.19823294       0.04325532       0.49992496      12.01100000
C        0.67157030       4.33418348       4.08019586       0.04773979       0.47190268       0.48054860      12.01100000
C        0.37866055       5.50575796      -1.69766752       0.60966233       1.34043048      -0.88277981      12.01100000
C       -0.09046741       4.46200707      -3.85851517      -0.07883016       0.80638691      -0.21672843      12.01100000
C        2.22238638       4.49761805      -2.94210977       0.30335807       0.41499156      -0.10892476      12.01100000
C       -0.53081111       5.31649266      -2.80985279       0.41941721       0.44690541       0.18241588      12.01100000
C        1.78047143       5.36378916      -1.89094007       0.49399452       1.13781758      -0.49881164      12.01100000
C        1.31943449       4.21515881      -4.01080382       0.06482020       0.57421125       0.04560945      12.01100000
C        0.28206318       5.54627517       1.95383737      -0.30068319       0.69661668       0.27657989      12.01100000
C       -1.96045080       5.32124800       1.06132637       0.23799029       0.62994711       0.10916336      12.01100000
C       -0.11299307       5.82626676      -0.42704859       0.18155988       1.57103376      -0.08777794      12.01100000
C       -1.13294520       5.53923593       2.21359876       0.22286547       0.47460157       0.14433853      12.01100000
C        0.77155256       5.95912360       0.67490118      -0.12899174       0.73992788       0.24732173      12.01100000
C       -1.55198272       5.82091530      -0.21043837       0.14487188       0.41443719      -0.11034759      12.01100000
C        3.13717133      -2.43637769       4.31131483      -0.15125868      -0.39612321       1.01774866      12.01100000
C        0.98260492      -3.62230181       4.53559409       0.18883240      -0.86730470       1.37976353      12.01100000
C        1.31098947      -1.39282852       5.55131781       0.57480430      -0.84282229       2.05808243      12.01100000
C        2.35898870      -3.63082433       4.15373933      -0.13459642      -0.18154679       0.63452674      12.01100000
C        2.70169266      -1.44387807       5.22638470       0.13685011      -0.53007726       0.79248819      12.01100000
C        0.55851130      -2.60454793       5.44373676       0.70598938      -1.03303711       1.46258883      12.01100000
C        0.69865466      -0.17008354       5.83705775       0.48638990      -0.35693499       1.13473480      12.01100000
C       -1.42853764       1.08793549       5.53116754       0.17096962       0.33485666       0.42277882      12.01100000
C        0.73202242       2.21480635       5.36666576      -0.43433009       0.20273940       1.27967521      12.01100000
C       -0.74000407      -0.08522476       5.95376887       0.15954777       0.25171730       0.64434315      12.01100000
C        1.43474073       1.05166859       5.84684460      -0.20470886      -0.07268043       0.70844041      12.01100000
C       -0.71468483       2.30731153       5.51537404      -0.05644798       0.19249914       0.80385871      12.01100000
C        1.94732961      -5.28987246      -1.06676358      -0.56214907      -0.84110483       0.29806970      12.01100000
C       -0.30366375      -5.50521630      -1.95427592       0.29557910      -1.04812558      -0.10813694      12.01100000
C        0.07680573      -5.84066977       0.44487738      -0.15860727      -1.66226704       0.23220616      12.01100000
C        1.10675220      -5.46968572      -2.19574750      -0.03597618      -0.27852842       0.03875528      12.01100000
C        1.51697250      -5.78877846       0.19688011      -0.36781410      -0.27435130       0.18443494      12.01100000
C       -0.79454279      -5.92529132      -0.66986171       0.12388714      -0.74893993      -0.08026375      12.01100000
C       -0.39719228      -5.55104560       1.71522229      -0.46935137      -1.22056304       0.78961374      12.01100000
C       -2.23097917      -4.50376820       2.96192096      -0.09748658      -0.55268199       0.19948771      12.01100000
C        0.06408551      -4.47831249       3.89317018       0.30502647      -0.65271919       0.19522152      12.01100000
C       -1.79838210      -5.38918814       1.93313528      -0.39171720      -1.14724266       0.64061454      12.01100000
C        0.48164775      -5.33584710       2.83395948      -0.19232678      -0.45383029      -0.01011156      12.01100000
C       -1.33844344      -4.21768667       4.03201331      -0.33588834      -0.37384642      -0.22434918      12.01100000
C        1.41545121      -1.04699289      -5.49451351      -0.09361562      -0.20454828      -0.37753142      12.01100000
C       -0.70133843       0.15951662      -5.79149430      -0.35277746       0.27111731      -1.26188831      12.01100000
C       -0.75016630      -2.16518682      -5.33263615       0.19468379      -0.02112573      -0.98174144      12.01100000
C        0.73435783       0.10891385      -5.92617025      -0.29778432      -0.25511045      -0.57798986      12.01100000
C        0.69051446      -2.25782826      -5.44423318      -0.22964173      -0.30270218      -0.44831835      12.01100000
C       -1.45857496      -1.04165998      -5.85659467       0.39263150       0.02004307      -0.50990399      12.01100000
C       -1.18979996      -4.87053800      -2.82580383      -0.33314050      -0.51587951      -0.62463406      12.01100000
C       -3.26477392      -3.64050951      -3.07749146      -1.16326259      -0.33487946      -0.44467756      12.01100000
C       -1.39860606      -3.19184758      -4.62650624      -0.21424031      -0.39995601      -0.36056134      12.01100000
C       -2.58243770      -4.79056649      -2.53538820      -0.20049948       0.10928978      -0.25283619      12.01100000
C       -0.69110052      -4.31092738      -4.06411254       0.00707351      -0.25860642      -0.15620460      12.01100000
C       -2.79020104      -3.05912198      -4.31341398      -0.33312072      -0.32669909      -0.33055561      12.01100000
C       -0.99928499       3.60647286      -4.49307055      -0.31963832       0.45084145      -1.23075053      12.01100000
C       -3.11830138       2.43468398      -4.27716446      -0.12739351       0.33286976      -0.84707572      12.01100000
C       -1.31234397       1.38532124      -5.49488831      -0.59653171       0.77705139      -1.72172492      12.01100000
C       -2.37321907       3.64814676      -4.11801320       0.22666729      -0.17536406      -0.48366950      12.01100000
C       -0.56116105       2.59804137      -5.39412422      -0.72738557       0.99461193      -1.45203205      12.01100000
C       -2.71327333       1.45650318      -5.23045595      -0.22742707       0.76930092      -0.66421986      12.01100000
C       -5.26390150      -2.68929946      -0.15234000      -0.48341098      -0.20812882      -0.37906882      12.01100000
C       -4.32078061      -3.05525108      -2.38392232      -1.96758259      -0.81596847      -0.86547781      12.01100000
C       -5.44823449      -0.94486508      -1.92169412      -1.27234454      -0.42824417      -0.68102400      12.01100000
C       -4.74096862      -3.59457804      -1.10314580      -0.34595500      -0.06672812      -0.58249087      12.01100000
C       -5.80519969      -1.43443350      -0.62811486      -0.35536293      -0.05914787      -0.64584019      12.01100000
C       -4.95851193      -1.87997480      -2.87626716      -1.70850205      -0.47155448      -0.50040600      12.01100000
C       -4.96935976      -2.84949382       1.20803836      -0.71024031      -0.25825304       0.43662615      12.01100000
C       -3.47798620      -3.83710709       2.88466484      -0.70950675      -0.63113814       0.37956647      12.01100000
C       -4.51286484      -1.67362084       3.34121953      -1.46498279      -0.95311439       0.95217671      12.01100000
C       -4.19569008      -3.94843401       1.63717855      -0.05213297       0.15500133       0.39357369      12.01100000
C       -5.27103649      -1.82101834       2.13941642      -0.97957408      -0.72054502       0.43346828      12.01100000
C       -3.85037371      -2.83124928       3.83053042      -1.04860720      -0.81589877       0.41251645      12.01100000
C       -4.36225273      -0.42334457       3.93509186      -1.68166592      -0.44085318       1.56534323      12.01100000
C       -2.75592845       1.01576454       5.03648252      -1.13510905       0.44098888       0.53254780      12.01100000
C       -4.27702757       2.00916544       3.44600984      -0.35275368      -0.15542599       0.49583226      12.01100000
C       -3.45057641      -0.23312871       5.02407452      -0.83256855       0.34352998       0.59439240      12.01100000
C       -4.94320532       0.74416339       3.36476952      -0.32860925       0.20307357       0.85094520      12.01100000
C       -3.36010600       2.20317312       4.49031874      -0.51680685       0.09448886       0.29095431      12.01100000
C       -4.35383845       2.96138197       2.40590807      -0.56480115       0.69908990       0.02713179      12.01100000
C       -3.23828488       4.72565778       1.22940580      -0.70731533       0.45308254       0.15155080      12.01100000
C       -4.79200218       3.28398803       0.02790585      -1.94246586       1.14695246      -0.13085810      12.01100000
C       -3.61811036       4.16743349       2.48515671      -0.28812517       0.23397764      -0.03383898      12.01100000
C       -5.21766785       2.71754574       1.28463209      -0.59556308       0.45840283       0.12268231      12.01100000
C       -3.98109685       4.44170146       0.05555136      -0.71174876       0.78163254       0.42023101      12.01100000
C       -5.03659053       2.60040791      -1.15571999      -1.13546707       0.24556174      -0.65672714      12.01100000
C       -4.16298705       2.16251167      -3.36089093      -0.19489607       0.37832073      -0.10117980      12.01100000
C       -5.50291757       0.43596031      -2.19756645      -0.89502961       0.15275553      -0.28072121      12.01100000
C       -4.49332520       3.10384779      -2.36229614      -1.23041679       0.35833887      -0.54867358      12.01100000
C       -5.81365516       1.38839471      -1.19975292      -0.58332693       0.35218459      -0.76910037      12.01100000
C       -4.78066303       0.89737363      -3.34976758       0.03653193      -0.01728165       0.50298747      12.01100000
O        0.23610832       0.43650972      -0.47206668       0.79007460       2.45397804      -1.18065836      15.99900000
H        0.38166228       0.84753646       0.55229860       0.23415061       0.00163231      -0.18058137       1.00800000
H       -0.13320112       1.10741858      -1.20394950       0.31342873      -0.25549980      -0.61820724       1.00800000
