243
Properties=species:S:1:pos:R:3:momenta:R:3:masses:R:1 C60-Ih=T time_fs=78000.0 step=78000 energy=-2135.064498525031 free_energy=-2135.064498525031 stress="0.0 0.0 0.0 0.0 0.0 0.0 0.0 0.0 0.0" pbc="F F F"
C       -1.44905209       2.54708215       2.08974551      -0.88505293      -0.29776630      -0.15403616      12.01100000
C       -1.89389424       1.27720134       2.81980534       0.06148959      -0.51062592      -0.65626952      12.01100000
C       -1.85010851       2.84315677       0.82201138       0.22455629      -0.12288275       0.93964628      12.01100000
C       -2.72616688       0.49421085       2.06024770       0.13909815       0.60457629      -0.83105655      12.01100000
C       -2.59230699      -0.93176364       2.12441930       0.19694991      -1.20204121      -1.59758578      12.01100000
C       -0.77116729       0.69168395       3.37221559      -0.27325424      -0.93717832       0.87893425      12.01100000
C       -0.61075003      -0.68830800       3.39077799      -0.52888774       0.44268834      -0.94544149      12.01100000
C       -1.55262162      -1.48763037       2.79353504      -0.21813550       0.95834412       0.55877494      12.01100000
C        0.30470014       3.63576312       0.08508335      -0.06042795       1.01430675      -1.32506696      12.01100000
C        0.83066946       3.16916146       1.36217497      -1.08894861      -0.95774313       0.65395532      12.01100000
C       -0.97483800       3.37644642      -0.11635256      -1.06105533      -0.07842332       1.03405813      12.01100000
C        0.01452774       2.58675832       2.30200666       0.83398556       0.27760172      -0.19003288      12.01100000
C        0.42760747       1.59598543       3.19943069       0.80260517      -0.43092253       0.61434388      12.01100000
C        2.14738825       2.58652350       1.21137318       0.30665638      -0.37318574      -0.22047796      12.01100000
C        2.46032482       1.53957410       1.94145715      -0.50796307      -0.10453999      -0.85561828      12.01100000
C        1.65285648       1.00427035       2.92461360       0.31722387      -0.74377497       0.46533430      12.01100000
C       -0.48753022       2.50229532      -2.28822779       0.07351417       0.27622299      -0.14837216      12.01100000
C        0.97096955       2.63602979      -2.09315854       0.44346595      -0.48739272       1.87537040      12.01100000
C       -1.42500542       2.89846857      -1.37714952       0.73083524       0.49918811       0.60028082      12.01100000
C        1.28751922       3.10872250      -0.86506763      -1.01013954      -0.58534218       0.05991049      12.01100000
C        2.42426575       2.57124037      -0.20869127       0.06976105      -0.31216414       0.08656154      12.01100000
C        1.65719546       1.45690110      -2.74825273      -0.11359255       1.06295383       2.37664224      12.01100000
C        2.70664618       0.93550959      -2.08532957       0.34415950      -0.48936270       0.43463658      12.01100000
C        3.10223903       1.52124411      -0.80627588       1.08578879       0.54592422      -1.48204332      12.01100000
C       -2.63883813       0.90181564      -1.94300835      -0.40291161      -1.05263937       0.37908386      12.01100000
C       -1.71868640       0.53249116      -2.91339079      -1.42269812       0.37558573      -0.43311308      12.01100000
C       -2.57313656       2.12598248      -1.28824309      -0.95693706      -0.48625329      -0.85826552      12.01100000
C       -0.62163290       1.30961779      -3.09215111      -0.47585656       0.00162264       0.17545942      12.01100000
C        0.65223556       0.65511975      -3.32301586      -0.63334525       0.04224512       1.70649895      12.01100000
C       -1.61105318      -0.99963045      -2.88204226      -0.38383648      -1.35513548      -0.76704328      12.01100000
C       -0.36133268      -1.59694724      -3.10149192      -0.36579715      -0.20457440      -0.63470223      12.01100000
C        0.71032838      -0.71327029      -3.27747712       0.43911268      -0.06011200      -0.53772217      12.01100000
C       -3.28379299       0.90073723       0.78848970      -1.04901349       0.16003721      -0.59263615      12.01100000
C       -3.40833295      -0.32452029       0.05335703      -0.95170805      -0.49280406       0.56187948      12.01100000
C       -2.82312788       1.99104210       0.13302163       1.45620271       0.24671755      -0.15467256      12.01100000
C       -3.09991385      -0.29998185      -1.27057583      -0.28325562       0.44979556       0.95130451      12.01100000
C       -2.48203709      -1.48800466      -1.88438401       0.99925404      -1.52633739      -0.73091789      12.01100000
C       -3.02765916      -1.42145268       0.84328828      -0.00004853       0.59378971       0.44855181      12.01100000
C       -2.36240538      -2.53692750       0.28863701       0.69646791      -0.05573749       0.07064317      12.01100000
C       -2.04750583      -2.53285621      -1.08844366       0.02325963       1.70788421      -0.20215961      12.01100000
C        1.45765800      -2.56653591      -1.99276630      -0.95181361      -1.00782419      -0.52885408      12.01100000
C        0.02538330      -2.72527481      -2.36221036       0.43962941       1.21644096       0.36319149      12.01100000
C       -0.79095552      -3.24504005      -1.35394084      -0.21255050       0.48736074      -0.90098437      12.01100000
C        1.92289096      -2.82243552      -0.74084378      -0.26829080      -0.72277410       0.44261319      12.01100000
C        3.25901647      -0.80706194      -0.62191270       1.79565586       0.39855296       0.41537669      12.01100000
C        2.74415778      -0.51337736      -1.94125691      -0.09888340      -0.29265795      -0.08288964      12.01100000
C        1.86031493      -1.33873129      -2.56019175       1.45350709      -0.27923128      -0.44068363      12.01100000
C        2.85002382      -1.94183032      -0.02926029      -0.50987310       0.00464626      -0.77622264      12.01100000
C        2.68296255      -0.75487537       2.01192599      -0.31701561       0.43960859      -0.46311904      12.01100000
C        3.22002537       0.41090634       1.40873919       0.01246507       0.67352607       1.08086284      12.01100000
C        3.46099930       0.46503306       0.03077051       0.44414266      -0.79389851      -1.82281263      12.01100000
C        2.63564077      -1.95565118       1.35705248      -0.47810661       1.52370898      -0.44687335      12.01100000
C        0.40533920      -2.50392989       2.44958604      -0.12683052      -0.18164417      -0.77295298      12.01100000
C        0.63138644      -1.26131051       3.20365634       0.25509783       1.79049319       0.10464780      12.01100000
C        1.77930240      -0.43481374       3.02359913      -0.53326094      -0.07522699       1.37578295      12.01100000
C        1.39804539      -2.72861358       1.55002946       0.67227528       0.66105147      -0.26467246      12.01100000
C       -0.32520928      -3.52838973      -0.04677560      -0.14214192      -0.06727962      -0.98071626      12.01100000
C       -1.34361227      -3.21788498       0.98601093      -0.61118405       0.34703469       0.41058474      12.01100000
C       -0.93773003      -2.62811445       2.21034800      -0.52715867      -0.13859181       0.77915643      12.01100000
C        0.94332226      -3.15457900       0.23692876      -0.46718745      -1.71893071      -0.03236962      12.01100000
C       -4.30740919      -2.14143155       4.28285292      -0.71817481       0.20288218      -0.56816333      12.01100000
C       -4.69279768      -2.91285163       3.11237798      -0.24786042      -0.40941068      -0.52466164      12.01100000
C       -3.89512306      -4.13070731       3.09525130      -0.58257361      -0.05977814      -1.00641012      12.01100000
C       -2.91694499      -4.11052528       4.14643419       0.09753213       1.57696959      -0.53403047      12.01100000
C       -3.13069923      -2.90367443       4.82452516      -0.22435404       0.52675691      -0.55812102      12.01100000
C       -1.94950983       3.43757397       5.11762455       0.68947747       0.01561907      -0.01942955      12.01100000
C       -2.31859888       2.11583241       5.46509080      -1.56825424      -0.57597517       0.58434491      12.01100000
C       -1.17213997       1.45910365       5.94820482      -1.28564820      -0.15401980      -0.28550083      12.01100000
C       -0.04101856       2.31898278       5.78733741      -0.54525530       0.42761406       0.13434810      12.01100000
C       -0.48247084       3.57240166       5.23655866      -0.55569103      -0.10717760       0.76503598      12.01100000
C       -6.09897209       1.93876928      -0.28972367       1.18412297      -0.59828789       0.33189999      12.01100000
C       -6.26874926       1.16946758       0.96894722      -0.14302304      -0.70771176      -0.55735900      12.01100000
C       -5.65199905       1.85200530       1.95970744       0.40934856      -0.92007391      -0.23849402      12.01100000
C       -5.18037910       3.14676040       1.51162357       0.31602493       0.26765770      -0.93229375      12.01100000
C       -5.42780218       3.13062919       0.08025933       0.82532841       0.48177474      -0.37846106      12.01100000
C       -3.89786158      -3.94312542      -2.96541575       0.32635623      -0.34189979       0.21223287      12.01100000
C       -4.55726049      -4.08756518      -1.73223885       0.96140930      -0.50555308       0.54981079      12.01100000
C       -5.44669995      -3.03393641      -1.66628579       0.26416186      -0.62580334      -1.56551363      12.01100000
C       -5.30192218      -2.25576782      -2.86083179       0.41718912      -1.02275097      -0.99031119      12.01100000
C       -4.34859708      -2.85899052      -3.73700465      -1.01052414      -0.71830806       0.16197619      12.01100000
C        1.63844125      -6.13459299       0.41202572      -0.02995720      -0.28663208       0.17278092      12.01100000
C        0.41788362      -6.25298415       1.16598151       0.28570683      -0.12480448      -0.26944109      12.01100000
C       -0.63302342      -6.30935311       0.10713991       0.38683791      -0.88271450      -0.31248913      12.01100000
C       -0.04858780      -6.25373933      -1.21056320      -0.19295151       1.14520066      -0.81172456      12.01100000
C        1.38817571      -6.19054124      -1.02213718       0.27501402       0.34228141      -0.38720506      12.01100000
C        2.82329699      -1.51088304       5.35390139       0.17866139      -0.49664000      -1.29719804      12.01100000
C        1.66183070      -2.34229148       5.61022409      -0.73858576       0.92200325       0.70841781      12.01100000
C        1.90362600      -3.59067887       4.86793688      -0.28191932      -1.29526943       0.01884844      12.01100000
C        3.16962645      -3.50426716       4.28496336       0.01754226      -0.06590152      -0.51527858      12.01100000
C        3.74630880      -2.22291176       4.57300803      -1.35757431       1.13446282       1.17770690      12.01100000
C        4.33003123       2.20542237      -4.41469850      -0.08460513       0.16594023      -0.33324287      12.01100000
C        3.15692341       2.88351945      -4.92673443      -0.41627984       0.21760970       0.83789234      12.01100000
C        2.93707792       4.10115681      -4.12081893      -1.51715779       0.14146746      -0.67951921      12.01100000
C        3.92799910       4.20265834      -3.07160260       0.51080893      -1.63642120       0.51274839      12.01100000
C        4.80009604       2.99908094      -3.25274719       0.01288249      -1.42545962      -1.19617039      12.01100000
C        0.44881255      -3.53868628      -5.16898494       0.25782878      -0.54421903       0.20972826      12.01100000
C       -0.03391985      -2.40428295      -6.02838113      -2.31927826      -0.15468379      -0.22143516      12.01100000
C        1.12254848      -1.41040220      -6.05795851      -0.94825752      -0.89343258       0.67093041      12.01100000
C        2.26338542      -2.09826993      -5.43880655      -0.42637090      -0.23076400      -0.07482017      12.01100000
C        1.87782817      -3.45516222      -4.96871561       1.62568584      -0.32435911       0.27006928      12.01100000
C       -3.68165563       2.08781108      -4.43052674       0.76539456       1.36274042      -0.33238266      12.01100000
C       -3.20915644       3.38672569      -4.21118494       0.56754073      -0.15920937      -0.42697014      12.01100000
C       -1.96713324       3.57881228      -4.93078165      -0.62475229      -0.79617188       0.31158030      12.01100000
C       -1.70467260       2.34781644      -5.66370508      -0.04834159      -0.96300853       0.35297707      12.01100000
C       -2.84295899       1.50717115      -5.39795789      -0.45484462       1.88687541      -0.21353379      12.01100000
C       -1.41823347       6.14309236       0.85409227      -0.53446383      -0.19577478      -0.40034492      12.01100000
C       -0.02522000       6.37159493       1.09649560      -0.53685884       0.29610393      -0.28532869      12.01100000
C        0.61732338       6.46837943      -0.18677833      -0.43551941      -0.35442776       1.27958228      12.01100000
C       -0.36796991       6.25874033      -1.23433883      -0.44659965      -0.15018796      -0.24175935      12.01100000
C       -1.63120926       6.11165835      -0.61368768       0.18875257       0.03159654      -0.07253181      12.01100000
C        4.26758406       2.85954776       3.67370294       0.71947224       1.22944700      -2.53451417      12.01100000
C        5.33541036       2.24608881       2.87922054       0.03436445      -0.66259967       0.60801302      12.01100000
C        5.43071085       2.95489121       1.63774666      -0.70543848       0.32108630       1.34207599      12.01100000
C        4.59171140       4.11171182       1.83684625       0.38156427       0.70579415       0.10497344      12.01100000
C        3.80808915       4.07302983       2.97835633       0.89140511      -1.00501046       0.52877581      12.01100000
C        5.52756736      -3.14908986      -0.00545552      -0.63480161      -0.05167429      -0.72926419      12.01100000
C        5.31475861      -3.18025082      -1.43802858       0.55592544       0.63187431       1.14758285      12.01100000
C        5.72926092      -1.97209402      -2.10445987      -0.37729511      -0.75088805      -0.44931152      12.01100000
C        6.12531168      -1.13249479      -0.97910785      -0.61692953       0.39914525      -0.29010287      12.01100000
C        6.01452503      -1.88634791       0.21940898      -0.26792825       0.38818238       0.39881277      12.01100000
C       -5.15378439      -0.12591584       3.26013413       0.57280690       1.04614826       0.09241636      12.01100000
C       -4.22242593       2.10724299       3.92157016      -0.49432052       0.58641298      -0.35984557      12.01100000
C       -3.50274239       0.01962974       5.08997188       0.45756221      -0.49151823       0.45646221      12.01100000
C       -5.15741530       1.31098953       3.20463342       1.31895694      -0.77823031       1.97582589      12.01100000
C       -4.40216414      -0.75931509       4.29221629      -0.08256141      -0.10913316       1.67884785      12.01100000
C       -3.40068692       1.46277509       4.97019026       0.13938522      -1.04248746      -1.22019161      12.01100000
C       -5.61230639      -0.88952582       2.02902279       0.65929403       0.32229506      -0.21203733      12.01100000
C       -5.95713018      -0.93700331      -0.45042662       0.39298005      -0.06860795       0.75174760      12.01100000
C       -5.36722581      -3.10641609       0.84108706      -0.16346438      -0.34765512       0.58377322      12.01100000
C       -6.15964741      -0.26535741       0.89366070       0.25564872       1.11321832      -1.17321244      12.01100000
C       -5.25745009      -2.29970548       2.04666316      -1.54445737       0.61680085       1.45834794      12.01100000
C       -5.68926163      -2.36964967      -0.30161382      -0.83980202       0.65503362      -0.02787264      12.01100000
C       -4.40169396      -4.30511331       0.65371714       0.21556181       0.65830652       0.21069573      12.01100000
C       -2.72622087      -5.38564190      -0.86193231      -0.41642133       0.78089800       0.77271103      12.01100000
C       -2.25817806      -5.40248408       1.70712652      -0.16453233      -0.73684363       1.11776887      12.01100000
C       -4.04787590      -4.77967251      -0.61566401      -0.00272416      -0.68298966       0.47238881      12.01100000
C       -3.56616674      -4.68882699       1.81868748       0.76273498       1.05132270       0.28595915      12.01100000
C       -1.97919869      -5.82349094       0.37921497       0.03078916       0.24267449       0.61094312      12.01100000
C       -1.23467518      -5.37470045       2.77812169       0.43617681      -0.63242541      -0.42345817      12.01100000
C        1.22687269      -5.13629109       3.21798142      -0.79542815       0.37743000      -1.62273659      12.01100000
C       -0.51071546      -4.01590372       4.74024695      -0.22688418      -0.57697190       0.62304775      12.01100000
C        0.16420213      -5.74062847       2.48620049       0.57771738       0.68132468      -0.23145768      12.01100000
C       -1.55515376      -4.63408777       3.97162016      -0.42262537       0.81432453       0.91142169      12.01100000
C        0.81894012      -4.41999130       4.37565318      -0.08980901       0.04402245      -0.42563627      12.01100000
C       -2.26235777      -0.67371669       5.53730699       0.22532160      -0.43728278       0.23690888      12.01100000
C        0.23265141      -0.42732011       5.97677888       0.08106993       0.02244761      -0.21466065      12.01100000
C       -0.76556898      -2.71744815       5.40370252      -0.19636006      -1.26055031       0.37908283      12.01100000
C       -1.08968008       0.10958794       5.89624274      -0.33145684      -0.53383650      -0.77700231      12.01100000
C       -2.09828726      -2.11475508       5.40327992      -0.08001272       0.59213742      -0.15234915      12.01100000
C        0.36565308      -1.85014970       5.86526766       0.43563577       0.33972537       0.24376896      12.01100000
C       -3.78574047       3.46849870       3.46957764      -0.10393679      -2.00535997       0.27565041      12.01100000
C       -3.51657376       4.93780989       1.20129206       1.07390655       0.73161079       0.32591779      12.01100000
C       -1.80679561       4.99030435       3.10184494      -0.14829544      -0.68466509       0.55639462      12.01100000
C       -4.24191103       4.01685604       2.11912632      -0.04964584      -1.16528217       0.41332444      12.01100000
C       -2.61739270       4.18373975       3.98056128      -0.52802165       0.56415234      -0.14541142      12.01100000
C       -2.24488369       5.36651484       1.70431716      -0.20771954      -0.38912776      -1.60385549      12.01100000
C        2.26227807       2.76327632       5.07870494       0.73788334       1.73378911       0.75156162      12.01100000
C        3.78556481       0.65766107       4.75228055      -0.01985774       0.34986278       0.15087566      12.01100000
C        1.47001881       0.41451924       5.90043204       0.70594093       1.15617230      -0.58201704      12.01100000
C        3.56426955       2.08280028       4.61556187      -0.06228481       0.03911793      -0.56330884      12.01100000
C        1.29610428       1.82804149       5.79803135       0.52888823      -0.83443717       0.28831105      12.01100000
C        2.68361261      -0.10467039       5.39568219       1.33110249       1.16133871       0.00248656      12.01100000
C       -0.37190477       5.08856499       3.32170502      -0.09446062      -0.64199879      -1.44679998      12.01100000
C        1.88844291       5.38490948       2.17375874      -0.90661330       0.61189948      -0.85966520      12.01100000
C        1.75228849       3.96224888       4.32747947      -0.60432034       0.63910056      -1.03520205      12.01100000
C        0.47270759       5.69398426       2.30338987       0.75925904      -0.15505456      -0.10388716      12.01100000
C        0.35005121       4.38835224       4.40203833       0.02266272       0.67159794       0.74610460      12.01100000
C        2.45560557       4.49435108       3.23696031       0.35501584      -0.30489165       1.35416287      12.01100000
C       -5.92139511      -0.18202522      -1.66063046       0.54567928      -0.32432958      -0.28150053      12.01100000
C       -4.67741701      -0.02355870      -3.85821646       0.37723315       0.47034539      -0.74449294      12.01100000
C       -5.19556815       2.11407344      -2.59520119      -0.13531816       0.97353543       1.63340047      12.01100000
C       -5.41920598      -0.88104215      -2.87428078      -1.10195603       0.68413411      -0.24305200      12.01100000
C       -5.86280887       1.28587833      -1.55347761       0.91743568       0.68682303       0.89451884      12.01100000
C       -4.68906819       1.35911123      -3.72347620      -0.00263867      -0.91012201      -2.02636375      12.01100000
C       -4.64679737       3.40327255      -2.13029659       0.25854158      -0.29074489       0.01128289      12.01100000
C       -2.59811693       4.92914226      -2.53970758      -0.88298597       0.78980089       0.89173330      12.01100000
C       -3.74824013       4.91254229      -0.33747966      -0.59985987      -0.21393955       0.94806497      12.01100000
C       -3.59923587       4.01509079      -3.02259661       0.30330642       0.27634614       0.88926117      12.01100000
C       -4.66116779       3.95065070      -0.77918792       0.20642759       1.21208341      -0.74385659      12.01100000
C       -2.68743830       5.37557460      -1.10669129       0.32772037      -0.25378960       0.98588086      12.01100000
C       -2.08399306      -5.43820640      -2.23213213      -0.49516739      -0.12692314      -0.05623128      12.01100000
C        0.29141407      -5.20005994      -3.44100777       1.06044246       0.25427937       0.40721085      12.01100000
C       -1.82241028      -4.04363852      -4.35809132       0.40974511      -0.22038806       0.92844357      12.01100000
C       -0.65482623      -5.78434550      -2.43639921       1.34329404       1.45180050      -1.16517753      12.01100000
C       -2.68464414      -4.56105266      -3.26907805       0.18940452      -0.59225726      -0.12054690      12.01100000
C       -0.38693972      -4.36260398      -4.39105714      -0.99131810       0.67196776      -1.23613567      12.01100000
C       -2.21955408      -2.72193809      -4.96746722       0.03463541      -0.63289874      -1.09191952      12.01100000
C       -1.44638171      -0.41103418      -5.96310644       0.93297463      -0.48286465       0.30759896      12.01100000
C       -3.76904967      -0.70159504      -4.78396698      -0.30671935      -0.03121247      -0.48284209      12.01100000
C       -1.31184704      -1.83888027      -5.71418168       0.37285174      -0.47316249      -0.35733389      12.01100000
C       -3.56880119      -2.20361103      -4.68079806      -0.68949185       0.17531778       1.21800300      12.01100000
C       -2.75678840       0.11617977      -5.44329705      -0.40964981      -0.61310866       1.25100183      12.01100000
C        2.61388618      -5.04103541       2.53998102      -1.05793311      -0.50045904      -0.81650915      12.01100000
C        4.59576661      -3.57053283       2.28429532       0.47075932      -0.18044507       0.98675008      12.01100000
C        3.60987699      -4.66937240       0.22174094       0.17143631       1.06273254      -0.01847231      12.01100000
C        3.52156085      -4.08532344       3.13016074       0.33110300       0.28987567       1.75196877      12.01100000
C        2.68497263      -5.32360572       1.11729406       0.08611669      -0.21307926      -1.05665919      12.01100000
C        4.67250969      -3.91391518       0.88271288       0.24772750       0.33510962      -0.29745905      12.01100000
C        1.77223790      -5.05101688      -3.17869045      -0.63506359      -0.13316157       1.71076415      12.01100000
C        3.83293574      -3.40502073      -3.37114501       1.03854113       0.09944426       0.23070391      12.01100000
C        3.47980973      -4.82291952      -1.27484806      -0.65324077       0.80366017       0.70810221      12.01100000
C        2.53784705      -4.11806166      -3.94805192       0.34172015      -1.07408277       0.93005028      12.01100000
C        2.28097021      -5.49086810      -1.92010668      -0.66039961      -0.45800592      -0.94553558      12.01100000
C        4.23293384      -3.85575477      -2.04752488      -1.26661980      -0.33484394       0.24995992      12.01100000
C        4.72111184       0.00147587       3.81379544      -0.72076668      -0.44950982       0.23111155      12.01100000
C        5.90053898       0.13071614       1.62250273       1.05603831      -0.50552106       0.25826477      12.01100000
C        5.22042630      -2.17656024       2.57992806       0.05419187       1.34961151      -1.03645386      12.01100000
C        5.46901623       0.78392166       2.82948174       0.57558704       0.84054980      -0.15789097      12.01100000
C        4.66340409      -1.49729749       3.64533264       0.41739811       0.37940219      -1.81436949      12.01100000
C        5.82586790      -1.28681629       1.54877569      -0.17093930      -0.74181770      -0.04549227      12.01100000
C        3.44689219      -0.00362317      -5.24707610       0.44796650      -0.52061620       0.28258019      12.01100000
C        4.28789369      -2.15743700      -3.99985247      -0.91960958       0.11990506      -0.50535192      12.01100000
C        5.25273555       0.15851273      -3.43142856      -0.97881370      -0.79848780      -1.05748928      12.01100000
C        3.44990797      -1.50211475      -5.01275649       0.33520064       0.43836622       0.41465735      12.01100000
C        4.59314754       0.79834801      -4.53364159       1.46952735      -0.76390753      -0.60441932      12.01100000
C        5.14428993      -1.33153687      -3.27086668      -0.35849567       0.33812606      -0.51501991      12.01100000
C        2.35899665       0.72752405      -5.86827537       1.26288486      -0.23809902       0.58474194      12.01100000
C       -0.24124536       0.48082664      -6.09816286       1.38991394       0.40119284      -0.25863036      12.01100000
C        0.76744301       2.72119619      -5.53868061       0.49338554       0.03401541       0.08685692      12.01100000
C        1.13926748       0.02600371      -6.20699054       0.42174297       0.27366571      -0.11560002      12.01100000
C        2.12098151       2.11739542      -5.57056271      -0.30881837       0.68592999       0.32690234      12.01100000
C       -0.37829063       1.85832458      -6.06000802      -0.22564001       1.21121616      -0.82442482      12.01100000
C        0.49324186       3.80958885      -4.54166790      -0.43177583      -0.52839113       0.28065868      12.01100000
C       -1.26871462       5.10502710      -3.17236801       0.47496945      -0.60434387      -0.33951587      12.01100000
C        1.26989534       5.30878251      -2.64965579       0.24513493       0.06155625       0.37273720      12.01100000
C       -0.87461379       4.22877871      -4.20778770      -0.41622272      -0.29242057      -0.17266210      12.01100000
C        1.54334450       4.49333500      -3.87198746       0.71298681       1.12932401       0.63800741      12.01100000
C       -0.11062392       5.76374822      -2.49111646       0.12282922       0.22560922      -0.45527117      12.01100000
C        2.30134854       5.46545986      -1.61461166       0.45282446       0.05394962      -0.22361002      12.01100000
C        2.57150049       5.40936746       0.87086019       1.38982757       1.15791081       0.30914235      12.01100000
C        4.38186838       4.24289194      -0.62359402       0.29438137       0.29973474      -0.37622749      12.01100000
C        1.94671538       5.91358053      -0.31112025      -0.52450906      -0.79841064       0.20630683      12.01100000
C        3.61086057       4.71545965      -1.75612514      -0.95858843       0.87439408       0.40070582      12.01100000
C        3.88953727       4.71816203       0.68783133       0.35821525      -1.01549803      -0.13391395      12.01100000
C        5.27657130       3.00931205      -0.85345775       0.40061412      -0.30860292       0.41060781      12.01100000
C        5.98627933       0.93393479       0.32109937      -1.59106021      -0.13897926      -0.13510117      12.01100000
C        5.83508206       0.99881976      -2.30041715       0.50687222       0.82357355      -0.24211843      12.01100000
C        5.58954963       2.32432732       0.37953215       1.88120193      -1.06931960       1.34670577      12.01100000
C        5.37373855       2.30186382      -2.17889375      -0.43730257      -0.35614501       1.39957129      12.01100000
C        6.19246805       0.28612497      -0.98071966       0.82634323       0.26968021       0.52941963      12.01100000
O       -0.06302725       0.04884564      -0.01671875       0.28321016      -1.15525187      -0.82655438      15.99900000
H        0.46307114      -0.43027026      -0.74181107       0.10363159      -0.09187941      -0.16904590       1.00800000
H        0.60526580       0.58601049       0.42620365      -0.18162252       0.22724498      -0.04025662       1.00800000
